ITEM: TIMESTEP
0
ITEM: NUMBER OF ATOMS
7982
ITEM: BOX BOUNDS pp pp pp
-2.1195284069596735e+01 2.1195284069596735e+01
-2.1195284069596735e+01 2.1195284069596735e+01
-2.1195284069596735e+01 2.1195284069596735e+01
ITEM: ATOMS id type xs ys zs
54 1 0.0859584 0.0305252 0.0266605
56 2 0.0684317 0.0446192 0.0246465
95 2 0.0998089 0.184655 0.0158171
96 1 0.0317338 0.0736033 0.0244503
97 2 0.0420964 0.0821392 0.00629448
98 2 0.0406935 0.084821 0.0418792
684 1 0.109095 0.112432 0.0512018
685 2 0.106135 0.123862 0.031954
686 2 0.0885394 0.111603 0.0605119
1232 2 0.163715 0.0427689 0.0335523
182 2 0.115848 0.14921 0.0801089
728 2 0.117432 0.164602 0.131429
1233 1 0.167897 0.0117251 0.0981952
1235 2 0.154492 0.0285942 0.0914421
1275 1 0.151279 0.0678889 0.0633673
1276 2 0.133688 0.0803675 0.0566795
180 1 0.126963 0.166788 0.0889028
727 2 0.132672 0.137749 0.149376
141 1 0.0538952 0.104843 0.0759818
142 2 0.0563301 0.100554 0.098017
1279 2 0.163238 0.0577855 0.202928
143 2 0.0408618 0.123266 0.075207
1230 1 0.173748 0.0317869 0.0165635
1234 2 0.186531 0.0219867 0.105768
1272 1 0.194319 0.137215 0.10101
1273 2 0.21467 0.128473 0.0966152
1274 2 0.193437 0.156039 0.0885706
1860 1 0.240834 0.0950431 0.0966625
1821 1 0.22559 0.031524 0.113411
1822 2 0.231647 0.0529153 0.109461
1823 2 0.231499 0.0278414 0.134892
1318 2 0.18013 0.121897 0.139569
1277 2 0.163823 0.0819786 0.0757773
1317 1 0.169737 0.117121 0.159038
1855 2 0.224069 0.0290079 0.00926214
138 1 0.0356068 0.167642 0.113247
139 2 0.0144014 0.166427 0.120911
140 2 0.0477085 0.174306 0.131108
135 1 0.0196871 0.180423 0.0499684
137 2 0.031269 0.180732 0.0693498
177 1 0.0800221 0.233718 0.0873992
178 2 0.0988168 0.240318 0.0980331
179 2 0.0656049 0.228631 0.104017
181 2 0.145751 0.168395 0.0764808
723 1 0.179078 0.180744 0.054657
724 2 0.187343 0.175118 0.0344105
725 2 0.167131 0.199528 0.0508743
765 1 0.154944 0.239787 0.025124
767 2 0.135176 0.23339 0.0162814
770 2 0.137627 0.248186 0.131288
807 1 0.0844533 0.219722 0.0262137
809 2 0.0872471 0.222143 0.0484896
183 1 0.0428266 0.230798 0.14398
184 2 0.0212643 0.237424 0.142959
1315 2 0.249314 0.188086 0.0743029
1353 1 0.236051 0.229046 0.0549803
1354 2 0.248754 0.246365 0.0619493
1355 2 0.217164 0.230576 0.067261
1356 1 0.201038 0.248944 0.108682
1358 2 0.193154 0.235925 0.125363
645 1 0.0958322 0.00926929 0.142987
136 2 0.00179644 0.193641 0.0538532
185 2 0.0515363 0.242505 0.161213
1900 2 0.236887 0.241458 0.0134771
59 2 0.0759784 0.0130517 0.0758342
646 2 0.115491 0.0178658 0.135951
89 2 0.00738352 0.0400279 0.017153
726 1 0.115043 0.15185 0.14991
99 1 0.0782996 0.0991301 0.147246
100 2 0.0852 0.0875952 0.16539
101 2 0.0952344 0.113399 0.142831
687 1 0.0875549 0.0561126 0.193106
688 2 0.109923 0.055964 0.190022
689 2 0.0849038 0.0603799 0.215121
695 2 0.172383 0.129168 0.242514
145 2 0.0380717 0.113906 0.157228
730 2 0.117189 0.215162 0.180786
732 1 0.0379901 0.109792 0.239498
734 2 0.0550399 0.0950632 0.241001
1278 1 0.150525 0.0634565 0.185149
1280 2 0.157372 0.0842731 0.179703
774 1 0.0882897 0.183028 0.196658
775 2 0.0658889 0.183517 0.193857
776 2 0.0958723 0.170505 0.179466
1195 2 0.0264147 0.0371547 0.170228
1194 1 0.00766446 0.0456488 0.160946
2373 1 0.187437 0.0565116 0.239119
1866 1 0.205028 0.139411 0.209971
1867 2 0.226916 0.143823 0.206599
1868 2 0.196513 0.158755 0.21792
2412 1 0.242325 0.0784208 0.21018
2413 2 0.240527 0.10052 0.214457
2414 2 0.2224 0.0698104 0.216403
1319 2 0.183683 0.124961 0.174972
2410 2 0.24838 0.0410194 0.186209
259 2 0.0113287 0.249629 0.0180541
144 1 0.0209017 0.119056 0.170959
146 2 0.030437 0.121479 0.191284
1196 2 0.00510463 0.0658076 0.170792
186 1 0.0223967 0.185855 0.207679
187 2 0.00825528 0.170155 0.199716
188 2 0.0100667 0.19757 0.222532
729 1 0.133118 0.228266 0.171596
731 2 0.139771 0.241749 0.188443
781 2 0.047498 0.169097 0.246069
1359 1 0.198799 0.208007 0.163058
1360 2 0.203724 0.22062 0.181129
1361 2 0.177162 0.202219 0.165922
1907 2 0.234241 0.187575 0.147086
1948 2 0.249013 0.249567 0.214265
58 2 0.0633476 0.0111396 0.109184
57 1 0.0570517 0.0154032 0.0879226
1854 1 0.244121 0.0369494 0.00257384
808 2 0.0671104 0.233277 0.0211771
7946 2 0.00817655 0.0320529 0.0809299
647 2 0.0914317 0.0202179 0.162239
55 2 0.096689 0.0319675 0.00684507
93 1 0.108555 0.166137 0.00630645
683 2 0.150599 0.0999669 0.00715505
1857 1 0.282869 0.0707257 0.0466259
1861 2 0.255367 0.0893792 0.0803348
1862 2 0.253908 0.100253 0.114321
2406 1 0.298565 0.0981902 0.133945
2407 2 0.3113 0.110367 0.119823
2408 2 0.306632 0.0771763 0.132152
1902 1 0.317396 0.180268 0.0561395
1903 2 0.33178 0.17114 0.070961
1904 2 0.296973 0.176448 0.0649819
2987 2 0.310969 0.0175799 0.155571
1859 2 0.301532 0.0585266 0.0430541
2939 2 0.380123 0.00396028 0.0697856
2982 1 0.320058 0.0423855 0.115774
2983 2 0.309327 0.0270537 0.103138
3067 2 0.362236 0.139482 0.116132
2979 1 0.406998 0.0567055 0.0232638
2981 2 0.428178 0.0494482 0.0261973
2984 2 0.338303 0.0479225 0.103677
3522 1 0.429728 0.142737 0.0150647
3523 2 0.448889 0.146301 0.0264682
3564 1 0.370977 0.0990534 0.1672
3566 2 0.355603 0.114198 0.160553
4032 1 0.448291 0.0968588 0.0907639
4033 2 0.4634 0.0986169 0.107452
4034 2 0.450948 0.115765 0.0787072
3477 1 0.372833 0.045217 0.0783055
4079 2 0.497357 0.148241 0.135186
3479 2 0.383475 0.0557383 0.0952152
3478 2 0.383114 0.0526745 0.0596356
3066 1 0.346335 0.128895 0.104093
3068 2 0.355765 0.125706 0.0838249
3606 1 0.370907 0.125712 0.0454586
3607 2 0.392595 0.129785 0.040674
3567 1 0.483758 0.0980698 0.142535
3996 1 0.462459 0.0222422 0.193487
1817 2 0.346196 0.0471359 0.0381449
1858 2 0.266288 0.0585745 0.0372821
1312 2 0.266204 0.180419 0.0169258
1314 1 0.26014 0.168787 0.0788018
2448 1 0.339119 0.217044 0.0127271
2450 2 0.327254 0.202367 0.025125
1316 2 0.2622 0.16856 0.101287
2490 1 0.355218 0.228972 0.0868338
2491 2 0.34061 0.217252 0.0994485
2492 2 0.347621 0.226603 0.0657019
1905 1 0.255855 0.181595 0.144446
2533 2 0.290682 0.200664 0.131831
2535 1 0.355023 0.200518 0.18297
2534 2 0.323247 0.198819 0.146375
2411 2 0.272113 0.0162876 0.176184
3608 2 0.361272 0.122033 0.0253709
3647 2 0.435426 0.247339 0.012684
3648 1 0.443766 0.231473 0.0533843
3649 2 0.434182 0.213859 0.0637663
3650 2 0.464027 0.223891 0.0469121
4116 1 0.468431 0.155186 0.0662938
4117 2 0.482924 0.15774 0.0834203
4118 2 0.450866 0.168289 0.0717397
3064 2 0.395766 0.166777 0.00108619
3111 1 0.410494 0.186241 0.0854583
3112 2 0.396068 0.20361 0.0857549
3113 2 0.402903 0.172302 0.101519
3610 2 0.403701 0.165243 0.159058
3611 2 0.375396 0.178551 0.14182
3485 2 0.39002 0.0302325 0.152266
1819 2 0.318224 0.0071508 0.0535987
3988 2 0.45471 0.0243228 0.082016
1864 2 0.276312 0.118041 0.167334
2985 1 0.309057 0.00178414 0.171593
2371 2 0.312481 0.0499394 0.22844
1863 1 0.270773 0.132622 0.183662
1865 2 0.289214 0.133869 0.196634
2451 1 0.322725 0.115728 0.224579
2453 2 0.307893 0.11426 0.241543
1906 2 0.259215 0.16552 0.159943
2452 2 0.342919 0.114209 0.234568
2986 2 0.322809 0.00875839 0.188089
2536 2 0.341305 0.19618 0.200374
2370 1 0.292691 0.0450528 0.238156
2372 2 0.279043 0.0619621 0.232018
3565 2 0.383175 0.109856 0.182833
3997 2 0.474607 0.0348767 0.207724
2988 1 0.3577 0.045452 0.210238
2989 2 0.372383 0.0511013 0.226436
2990 2 0.357106 0.0634454 0.196609
3027 1 0.404604 0.123219 0.213648
3028 2 0.410816 0.144891 0.214922
3029 2 0.39652 0.11843 0.23418
3525 1 0.404558 0.0650723 0.128141
3526 2 0.42021 0.0777901 0.117985
3527 2 0.394524 0.0790479 0.142766
3530 2 0.419251 0.0308703 0.248257
3569 2 0.475759 0.103691 0.16289
3570 1 0.468662 0.114962 0.202173
3571 2 0.475185 0.109373 0.223055
3572 2 0.446918 0.108946 0.201234
2494 2 0.312783 0.156888 0.233721
2532 1 0.312328 0.205712 0.127852
1950 1 0.285789 0.233794 0.221463
1951 2 0.288335 0.211395 0.220157
1952 2 0.285116 0.238134 0.243613
2493 1 0.302018 0.176717 0.232814
2537 2 0.368813 0.216721 0.190533
2495 2 0.312835 0.18972 0.247775
3069 1 0.429904 0.18538 0.19812
3070 2 0.41784 0.191822 0.216087
3071 2 0.451167 0.190963 0.20328
3609 1 0.390175 0.161485 0.141372
4119 1 0.489225 0.211947 0.201942
4120 2 0.494752 0.220189 0.181659
1815 1 0.33325 0.0339835 0.0251334
1816 2 0.346083 0.0294585 0.00711383
3995 2 0.480163 8.74874e-05 0.130085
3993 1 0.495676 0.0120741 0.14129
2409 1 0.250083 0.0211991 0.175525
3998 2 0.475531 0.0201707 0.175192
3483 1 0.38715 0.0104107 0.162694
3989 2 0.461898 0.0571704 0.0699835
2980 2 0.406503 0.0642803 0.00199743
3987 1 0.466184 0.0353605 0.066004
3484 2 0.384605 0.0157892 0.184476
3020 2 0.458962 0.00195528 0.0381642
1940 2 0.282467 0.102411 0.0119001
2449 2 0.354414 0.204344 0.00201901
63 1 0.0981264 0.0297945 0.355007
7911 1 0.00702664 0.00898326 0.268699
2374 2 0.179397 0.0739492 0.251
1246 2 0.166864 0.00413736 0.478895
1831 2 0.155857 0.0022092 0.388909
1375 2 0.189396 0.222046 0.489065
786 1 0.108392 0.169612 0.483835
2328 1 0.243542 0.00445425 0.255707
65 2 0.10287 0.0385177 0.375287
64 2 0.110831 0.0416852 0.340617
1838 2 0.218022 0.0117166 0.454871
788 2 0.0858467 0.170726 0.483229
2375 2 0.185008 0.0387265 0.252818
651 1 0.102611 0.0135078 0.282353
690 1 0.09236 0.0747088 0.26091
692 2 0.112559 0.084801 0.260795
693 1 0.162594 0.118095 0.259586
694 2 0.178768 0.116408 0.275253
733 2 0.0444328 0.127236 0.252307
735 1 0.0399161 0.0786682 0.31715
736 2 0.0549022 0.0784024 0.300261
1365 1 0.117163 0.183137 0.279625
1367 2 0.126301 0.170901 0.296258
1281 1 0.211564 0.103307 0.301088
1283 2 0.210376 0.113911 0.320988
1324 2 0.137221 0.141443 0.331511
737 2 0.0237789 0.0928401 0.310176
1366 2 0.134335 0.187293 0.265563
69 1 0.140647 0.0755039 0.326832
691 2 0.0966452 0.0535408 0.267501
1282 2 0.2108 0.0813536 0.306317
1323 1 0.155045 0.154564 0.327039
1325 2 0.172112 0.144952 0.338273
1908 1 0.186575 0.186652 0.253137
1909 2 0.197834 0.17686 0.270085
1910 2 0.189127 0.208803 0.256697
66 1 0.0677497 0.00416372 0.43083
1237 2 0.193936 0.0234313 0.305407
777 1 0.0770799 0.244445 0.266355
778 2 0.0867571 0.224188 0.263925
780 1 0.0529584 0.162405 0.266932
782 2 0.0746878 0.168111 0.269202
1321 2 0.187107 0.21713 0.309631
1320 1 0.173292 0.223132 0.326454
1322 2 0.153807 0.21273 0.321763
1362 1 0.192992 0.247849 0.264074
2496 1 0.234513 0.192199 0.307285
2497 2 0.246137 0.210117 0.299956
2498 2 0.249027 0.174979 0.305647
7577 2 0.00020648 0.240643 0.264962
1245 1 0.14532 0.00294156 0.485548
7957 2 0.00270763 0.0544539 0.376219
71 2 0.160457 0.0848115 0.321281
739 2 0.0323168 0.0749923 0.355255
70 2 0.128799 0.0924251 0.335952
110 2 0.00678515 0.145321 0.405862
657 1 0.0804048 0.0701135 0.421244
658 2 0.093093 0.0886802 0.423284
659 2 0.0646548 0.0756615 0.406044
696 1 0.150782 0.0420462 0.399258
697 2 0.151593 0.0594832 0.413582
698 2 0.157465 0.050651 0.37948
699 1 0.068256 0.0719862 0.488768
701 2 0.0685108 0.0629229 0.468088
1287 1 0.135235 0.0646991 0.486984
738 1 0.0318622 0.0806647 0.377106
740 2 0.02536 0.102289 0.377208
741 1 0.102036 0.130246 0.427024
1286 2 0.152012 0.0869033 0.45528
1289 2 0.136957 0.0427219 0.482093
1327 2 0.0815735 0.124081 0.351597
111 1 0.0388512 0.187476 0.483614
112 2 0.0188478 0.187839 0.473144
1326 1 0.10399 0.126396 0.350168
1236 1 0.206509 0.0408254 0.312424
1238 2 0.227634 0.0328517 0.312555
1911 1 0.199662 0.123669 0.364504
1912 2 0.206718 0.142461 0.374846
1913 2 0.214473 0.107835 0.37081
1284 1 0.15609 0.0966332 0.435315
1285 2 0.175669 0.107504 0.438208
1833 1 0.249192 0.0921036 0.49365
1872 1 0.216001 0.117631 0.441439
1873 2 0.223043 0.105362 0.423839
1874 2 0.228313 0.136533 0.440452
1915 2 0.248485 0.182296 0.415894
67 2 0.0767163 0.0242909 0.425893
2421 1 0.242239 0.082988 0.394671
2423 2 0.239876 0.0605326 0.394889
1956 1 0.215366 0.187324 0.372217
1958 2 0.217445 0.189558 0.349844
1835 2 0.234624 0.0924932 0.476401
73 2 0.0624455 0.0278792 0.497241
652 2 0.112813 0.000187556 0.297465
1877 2 0.226657 0.166948 0.494542
784 2 0.0937304 0.237681 0.457926
783 1 0.114124 0.231414 0.465322
742 2 0.0995322 0.143463 0.44516
743 2 0.122081 0.120285 0.430002
1328 2 0.110264 0.133515 0.370658
189 1 0.0264545 0.247895 0.344701
190 2 0.0459977 0.240145 0.35294
150 1 0.0476527 0.182508 0.336208
151 2 0.0482427 0.171985 0.316238
152 2 0.0336638 0.199942 0.333009
192 1 0.127228 0.188408 0.378034
193 2 0.112124 0.203581 0.370855
194 2 0.140023 0.184149 0.359922
237 1 0.0542488 0.24186 0.450349
822 1 0.0871435 0.243414 0.368652
1373 2 0.221453 0.24969 0.451239
787 2 0.115237 0.190441 0.478434
7536 1 0.0494494 0.161951 0.397447
7537 2 0.0712343 0.159799 0.402985
7538 2 0.0497076 0.172217 0.377337
239 2 0.0429919 0.22642 0.438317
785 2 0.119003 0.246197 0.481678
1329 1 0.161308 0.219935 0.42107
1330 2 0.153929 0.20477 0.406056
1331 2 0.143596 0.223599 0.434589
1374 1 0.182005 0.200986 0.485642
1376 2 0.171031 0.20197 0.465931
1957 2 0.217999 0.208256 0.380266
1959 1 0.245459 0.234466 0.414841
1961 2 0.241386 0.24854 0.397659
113 2 0.0416819 0.208574 0.491147
700 2 0.089943 0.0763356 0.493311
7912 2 0.0260904 0.00808807 0.280768
1202 2 0.064107 0.00338115 0.335762
72 1 0.0594523 0.00549798 0.497248
155 2 0.0311207 0.145174 0.498949
3455 2 0.387343 0.0143543 0.377438
2329 2 0.258468 0.0209161 0.251692
2465 2 0.302103 0.125427 0.494262
4045 2 0.440399 0.0239067 0.429671
3453 1 0.381986 0.00591895 0.397687
2991 1 0.384905 0.0268994 0.334665
4507 2 0.494669 0.0289619 0.322374
2954 2 0.282601 0.0232296 0.320809
2951 2 0.333016 0.0192873 0.292013
2507 2 0.312385 0.205974 0.482636
2992 2 0.40066 0.0425754 0.330674
4002 1 0.474925 0.0147959 0.407291
2952 1 0.269629 0.00775997 0.330923
1828 2 0.302435 0.0632051 0.282687
1829 2 0.32534 0.0719671 0.308648
1869 1 0.277048 0.114439 0.274066
1870 2 0.285979 0.131373 0.286038
1871 2 0.258684 0.108344 0.285706
2459 2 0.367849 0.136612 0.33689
1827 1 0.309628 0.0567325 0.303089
2993 2 0.375365 0.0232073 0.314535
2454 1 0.376502 0.111557 0.271783
2455 2 0.394816 0.0984827 0.273663
2456 2 0.369644 0.114786 0.293053
2457 1 0.355572 0.118766 0.330513
2458 2 0.343434 0.113423 0.348789
3030 1 0.464028 0.169364 0.276297
3031 2 0.4675 0.147078 0.275215
3032 2 0.484712 0.17837 0.275344
3528 1 0.410593 0.0490216 0.258526
3529 2 0.422116 0.050611 0.27788
3532 2 0.44546 0.0739927 0.322949
3573 1 0.475243 0.10574 0.270936
3574 2 0.495261 0.102229 0.280776
3575 2 0.460927 0.0925248 0.282351
3531 1 0.438548 0.0539115 0.315278
3533 2 0.45759 0.0430839 0.309799
2505 1 0.332081 0.195387 0.485774
3618 1 0.438007 0.116502 0.332604
3619 2 0.455996 0.125678 0.342706
3620 2 0.424255 0.133955 0.328585
4003 2 0.492186 0.0094597 0.420835
2506 2 0.326547 0.176069 0.496074
2949 1 0.345875 0.00305301 0.283014
1407 1 0.292201 0.23527 0.349005
1953 1 0.300304 0.165158 0.30794
1955 2 0.319584 0.172364 0.298653
1992 1 0.26657 0.245411 0.28877
2541 1 0.342906 0.204324 0.276459
2542 2 0.364944 0.200172 0.273815
2543 2 0.341964 0.219454 0.293194
1994 2 0.279718 0.244048 0.307077
3034 2 0.445754 0.193526 0.311695
3072 1 0.404965 0.194169 0.256205
3073 2 0.425895 0.186203 0.259091
3074 2 0.406847 0.216407 0.259641
3033 1 0.436416 0.200799 0.330924
3035 2 0.436036 0.223284 0.328883
2544 1 0.273733 0.222979 0.479873
2418 1 0.25669 0.0122242 0.397698
3004 2 0.279247 0.0417226 0.471266
2462 2 0.322622 0.0800741 0.378826
2460 1 0.315202 0.0982378 0.390002
2461 2 0.316619 0.0924529 0.411783
1914 1 0.253433 0.167637 0.432341
2422 2 0.264499 0.0863545 0.396412
3036 1 0.312925 0.0677027 0.444979
3037 2 0.322934 0.0474627 0.444802
3038 2 0.3276 0.0811834 0.455598
2504 2 0.301556 0.140359 0.379204
4044 1 0.422637 0.0299254 0.442249
2997 1 0.331244 0.0400221 0.369574
3621 1 0.436221 0.134095 0.486554
3622 2 0.43566 0.154184 0.476257
2499 1 0.381043 0.176176 0.347131
4093 2 0.487741 0.0656205 0.489816
3040 2 0.373947 0.0880504 0.479594
2994 1 0.393454 0.0823304 0.38738
2995 2 0.392587 0.100858 0.400258
2996 2 0.400576 0.0897392 0.367274
2999 2 0.33978 0.0292024 0.387462
3039 1 0.368591 0.105472 0.466264
3576 1 0.452723 0.111817 0.428179
3577 2 0.465524 0.129622 0.433561
3578 2 0.434123 0.120774 0.419031
3078 1 0.399534 0.146832 0.407242
3079 2 0.383622 0.156268 0.42019
3080 2 0.398519 0.15826 0.387793
3623 2 0.440642 0.119375 0.470012
4046 2 0.425454 0.0520453 0.445806
4086 1 0.481841 0.15708 0.359989
4088 2 0.469959 0.169024 0.375023
3081 1 0.435749 0.191367 0.455385
3083 2 0.428837 0.212171 0.460797
3041 2 0.387746 0.117285 0.464416
4596 1 0.494548 0.0737412 0.385613
4597 2 0.486077 0.0846291 0.40349
2552 2 0.38187 0.239878 0.49706
2998 2 0.347178 0.0381418 0.353686
2953 2 0.266813 0.015584 0.351917
1408 2 0.28059 0.216108 0.351812
1954 2 0.305415 0.161747 0.329668
2502 1 0.302334 0.161498 0.371303
2503 2 0.31473 0.172753 0.386454
1916 2 0.268656 0.178373 0.445103
1960 2 0.266163 0.24003 0.421931
1998 1 0.354799 0.24043 0.327089
1999 2 0.335606 0.23328 0.336597
2002 2 0.306444 0.249976 0.455833
2546 2 0.256739 0.237058 0.475089
2586 1 0.389098 0.236097 0.405204
2588 2 0.395291 0.243624 0.425573
2500 2 0.399858 0.187745 0.342437
2501 2 0.365142 0.192009 0.34965
3118 2 0.441385 0.203436 0.370599
3114 1 0.344003 0.185269 0.416513
3115 2 0.356039 0.203448 0.410633
3116 2 0.344335 0.185319 0.439091
3117 1 0.443476 0.202163 0.393046
3119 2 0.426092 0.214153 0.40104
3082 2 0.441865 0.192895 0.433703
2419 2 0.275578 0.00366098 0.406631
4004 2 0.479162 0.0360065 0.400808
3003 1 0.274303 0.0259082 0.486607
4092 1 0.480154 0.048364 0.477385
3581 2 0.383608 0.0191494 0.467034
3454 2 0.394646 0.0176581 0.412241
2464 2 0.337536 0.122167 0.491209
3624 1 0.490849 0.230891 0.49469
4094 2 0.470953 0.0342029 0.492374
3579 1 0.36137 0.0155205 0.468508
3580 2 0.357512 0.0129069 0.490602
3628 2 0.482657 0.121824 0.494636
115 2 0.108243 0.0525252 0.570557
78 1 0.0972502 0.106095 0.687512
79 2 0.101225 0.0872275 0.675761
114 1 0.0977891 0.0349824 0.580193
665 2 0.101459 0.0560958 0.619166
702 1 0.1341 0.0940033 0.576627
703 2 0.151018 0.0910725 0.561962
704 2 0.128512 0.115782 0.574545
705 1 0.0417837 0.091488 0.617938
706 2 0.0514876 0.111862 0.617147
707 2 0.0558487 0.0789997 0.630432
1208 2 0.14188 0.0183978 0.638792
157 2 0.111688 0.144594 0.630188
160 2 0.0548459 0.111758 0.69604
203 2 0.00623182 0.155856 0.681424
752 2 0.140077 0.1559 0.671583
1335 1 0.156256 0.147947 0.622641
1336 2 0.173862 0.136223 0.614739
1337 2 0.162142 0.169568 0.619856
116 2 0.0785862 0.0327311 0.568529
1292 2 0.186613 0.107773 0.539745
1253 2 0.184712 0.0343667 0.597538
1293 1 0.162806 0.0620891 0.631817
1294 2 0.146405 0.0744176 0.622389
1295 2 0.181407 0.0746742 0.629474
1878 1 0.235703 0.0518568 0.546419
1879 2 0.249036 0.0336729 0.54762
1880 2 0.24318 0.0654529 0.562824
2430 1 0.24307 0.0195049 0.644014
2431 2 0.228115 0.00832388 0.656711
1291 2 0.200391 0.0749188 0.537248
749 2 0.0346928 0.0139151 0.590515
1332 1 0.18572 0.151668 0.549188
1334 2 0.201083 0.157586 0.533733
663 1 0.0943089 0.0562473 0.640584
2432 2 0.24763 0.0054498 0.62694
1845 1 0.243335 0.0249665 0.748799
747 1 0.0278465 0.0330127 0.580601
748 2 0.0293129 0.0486528 0.596822
1252 2 0.206029 0.0335798 0.568895
159 1 0.0358856 0.123931 0.69752
161 2 0.0196214 0.108671 0.701053
7461 1 0.00187558 0.11488 0.57056
7462 2 0.0140689 0.101041 0.583586
7463 2 0.0136588 0.116428 0.55136
1206 1 0.137915 0.000600701 0.652112
119 2 0.0156518 0.0152459 0.517023
118 2 0.00351243 0.0196745 0.550317
745 2 0.138913 0.153589 0.550445
196 2 0.0410044 0.160841 0.546406
197 2 0.0703956 0.161774 0.566672
156 1 0.089227 0.14501 0.632472
158 2 0.0843138 0.166739 0.636162
198 1 0.0966686 0.218658 0.573072
200 2 0.0838041 0.206596 0.55897
243 1 0.0297102 0.229294 0.597709
244 2 0.0354805 0.246959 0.584882
789 1 0.0887125 0.213424 0.636131
790 2 0.0755459 0.231332 0.640109
791 2 0.0911022 0.21303 0.613681
1377 1 0.15576 0.225946 0.539616
245 2 0.0341459 0.21127 0.58485
199 2 0.117375 0.217636 0.564123
195 1 0.0507902 0.172408 0.563149
744 1 0.116373 0.154735 0.55118
1381 2 0.131243 0.224062 0.653966
746 2 0.10984 0.151494 0.52981
1924 2 0.217567 0.192884 0.617259
153 1 0.0328697 0.129581 0.515187
1333 2 0.189898 0.165184 0.566788
1378 2 0.175476 0.233204 0.54789
1379 2 0.161471 0.211722 0.523035
1923 1 0.199931 0.193546 0.603173
1925 2 0.201168 0.213916 0.593507
1290 1 0.180917 0.0862668 0.535881
1250 2 0.123567 0.00598068 0.564526
7543 2 9.25983e-05 0.145901 0.598316
7544 2 0.0146942 0.178476 0.597291
1251 1 0.192367 0.0206126 0.581348
120 1 0.0624336 0.00139764 0.663556
81 1 0.0998167 0.00072988 0.715333
80 2 0.0897138 0.120843 0.672163
708 1 0.17946 0.047984 0.692772
709 2 0.19012 0.0280939 0.691979
710 2 0.171592 0.0510295 0.671827
162 1 0.0234898 0.0393064 0.703904
163 2 0.00796486 0.0537478 0.71167
1288 2 0.145805 0.0669315 0.506812
164 2 0.0288825 0.0266308 0.721797
751 2 0.151846 0.143822 0.703063
711 1 0.111414 0.0620996 0.746485
712 2 0.112714 0.0558807 0.724816
713 2 0.106343 0.0840916 0.745768
1299 1 0.169379 0.111782 0.721016
1300 2 0.183878 0.109822 0.738216
1301 2 0.172711 0.0931808 0.708656
750 1 0.148813 0.16281 0.691225
795 1 0.0712985 0.173535 0.718332
796 2 0.0908456 0.173029 0.707039
797 2 0.0585483 0.157838 0.708286
1296 1 0.208167 0.106771 0.619555
1297 2 0.225596 0.106754 0.605198
1876 2 0.23688 0.133796 0.503017
1298 2 0.215661 0.118177 0.637544
1338 1 0.235413 0.136904 0.674999
1339 2 0.222872 0.150453 0.688001
1847 2 0.237763 0.0448584 0.73968
1889 2 0.236578 0.0902552 0.704198
1341 1 0.204456 0.191614 0.701742
1875 1 0.238037 0.155202 0.510111
1380 1 0.148769 0.230175 0.666826
1382 2 0.151137 0.213251 0.681585
756 1 0.0307464 0.242694 0.749401
757 2 0.0183154 0.223872 0.748356
758 2 0.0336885 0.24874 0.727845
1342 2 0.196408 0.200684 0.720791
1343 2 0.187125 0.179851 0.69331
2519 2 0.240684 0.206506 0.702743
1207 2 0.13655 0.00928771 0.67291
121 2 0.0777252 0.000264659 0.680132
664 2 0.0870434 0.0351889 0.644276
122 2 0.0488115 0.0183723 0.669571
83 2 0.0872085 0.00493705 0.733588
1834 2 0.245654 0.0721441 0.503599
154 2 0.0243461 0.110817 0.50596
3627 1 0.498348 0.108271 0.50358
1842 1 0.265156 0.0939383 0.585869
1843 2 0.273414 0.0880632 0.606047
1882 2 0.283726 0.18044 0.628047
2427 1 0.310225 0.0596119 0.527631
2428 2 0.310248 0.0503585 0.548228
2429 2 0.297683 0.0782607 0.529817
3048 1 0.282241 0.0751381 0.642995
3049 2 0.265751 0.0640303 0.653699
3050 2 0.293799 0.0853691 0.659475
3540 1 0.325803 0.0462553 0.592538
1844 2 0.275578 0.113349 0.58092
1884 1 0.328452 0.176283 0.634826
1885 2 0.332546 0.197109 0.627117
1886 2 0.34647 0.16425 0.628468
1920 1 0.281156 0.162263 0.560986
3538 2 0.352761 0.0659639 0.513799
1922 2 0.302658 0.163088 0.554142
1921 2 0.269171 0.16118 0.541879
3503 2 0.282891 0.0138485 0.673407
2466 1 0.342963 0.173692 0.555453
2468 2 0.349613 0.15305 0.549161
3084 1 0.42826 0.162126 0.55006
2467 2 0.351114 0.176136 0.576368
2469 1 0.39191 0.151557 0.622094
2470 2 0.402657 0.135846 0.634241
2471 2 0.40343 0.170584 0.625987
3002 2 0.410622 0.0607786 0.67212
3042 1 0.389405 0.0723394 0.601637
3043 2 0.36926 0.062577 0.59868
3044 2 0.403464 0.0603544 0.588653
3045 1 0.418187 0.0994385 0.651133
3046 2 0.412313 0.092774 0.630373
3047 2 0.440734 0.0982162 0.651303
3542 2 0.322871 0.0256707 0.601345
3585 1 0.477062 0.0987743 0.572041
3586 2 0.479804 0.11858 0.582534
3587 2 0.481934 0.1031 0.550421
3588 1 0.478607 0.159735 0.604797
3590 2 0.461628 0.171252 0.614226
3087 1 0.422196 0.203155 0.639003
2510 2 0.407588 0.203844 0.561222
3541 2 0.315811 0.0601789 0.607241
3086 2 0.447511 0.160727 0.561778
3499 2 0.455956 0.0592129 0.576569
2426 2 0.382009 0.10992 0.575449
3085 2 0.434228 0.157455 0.528789
4051 2 0.367579 0.0226344 0.549577
2424 1 0.376844 0.118963 0.555414
3498 1 0.445228 0.0421286 0.586715
3669 1 0.49546 0.180392 0.539022
4058 2 0.479514 0.00573076 0.743088
3502 2 0.276757 0.027718 0.70574
3001 2 0.381572 0.04409 0.68449
3537 1 0.375116 0.0686813 0.515458
3545 2 0.469525 0.0153696 0.655316
1881 1 0.262372 0.182771 0.621087
1883 2 0.263381 0.180009 0.598699
2511 1 0.301141 0.228589 0.542985
2512 2 0.315394 0.245561 0.538664
2513 2 0.314445 0.21051 0.545441
2550 1 0.369164 0.233804 0.51471
1918 2 0.265016 0.249112 0.547557
2472 1 0.354441 0.229248 0.603583
2473 2 0.344373 0.247194 0.594284
2515 2 0.255248 0.248594 0.631544
2474 2 0.374645 0.22826 0.59355
2508 1 0.404211 0.224766 0.569014
2509 2 0.399258 0.23692 0.550639
3088 2 0.434424 0.200135 0.657745
3089 2 0.42456 0.225086 0.634174
3666 1 0.470307 0.231499 0.574731
3667 2 0.447962 0.234569 0.573648
3671 2 0.484286 0.191487 0.555205
3500 2 0.461283 0.0316492 0.598644
3539 2 0.37764 0.0880903 0.526718
2958 1 0.396743 0.00673405 0.630077
3505 2 0.325749 0.0358762 0.701046
2463 1 0.321547 0.133417 0.502508
3508 2 0.427266 0.00691086 0.688466
1340 2 0.252745 0.149806 0.66844
1887 1 0.253302 0.0752915 0.706702
1888 2 0.272133 0.0871586 0.702902
2476 2 0.322453 0.109352 0.72813
2480 2 0.38648 0.160983 0.739446
1929 1 0.295253 0.168852 0.690152
1930 2 0.280548 0.185842 0.692382
1931 2 0.306402 0.173482 0.67107
2475 1 0.314782 0.104751 0.707397
2477 2 0.309731 0.124934 0.698621
3506 2 0.335865 0.0699138 0.704858
2425 2 0.393273 0.133971 0.551573
3631 2 0.474091 0.183434 0.668905
3504 1 0.343576 0.0487342 0.70622
3546 1 0.394826 0.092035 0.736052
3547 2 0.398863 0.0739872 0.723095
3548 2 0.384425 0.106643 0.722329
4053 1 0.487073 0.0855279 0.640829
4055 2 0.492766 0.101573 0.625995
4099 2 0.492314 0.140165 0.685769
3630 1 0.460214 0.17284 0.683225
3632 2 0.458112 0.187062 0.700637
4054 2 0.497058 0.0918155 0.66008
3051 1 0.45705 0.111978 0.743919
3053 2 0.437834 0.100275 0.742008
3093 1 0.395848 0.149159 0.698097
3094 2 0.390925 0.167861 0.686441
3095 2 0.412434 0.139351 0.686323
3589 2 0.496941 0.166308 0.616223
4100 2 0.498707 0.121299 0.715411
2516 2 0.253716 0.244224 0.666955
2517 1 0.259264 0.219329 0.702249
2518 2 0.265425 0.221206 0.723891
2520 1 0.326694 0.194201 0.737436
2522 2 0.34009 0.207831 0.72541
2521 2 0.314653 0.183002 0.721961
3090 1 0.380165 0.215234 0.703299
3091 2 0.40149 0.213864 0.710598
3092 2 0.379205 0.234924 0.692287
3135 1 0.437266 0.216363 0.726215
3136 2 0.441159 0.238498 0.728398
3137 2 0.435715 0.208769 0.747423
2551 2 0.355067 0.218222 0.506442
2959 2 0.407905 0.0132437 0.611559
3543 1 0.483935 0.0218852 0.639198
2960 2 0.404338 0.0204068 0.646364
3005 2 0.284822 0.0327473 0.505381
4050 1 0.358781 0.00246774 0.544498
3000 1 0.404136 0.0433954 0.68499
3626 2 0.489043 0.211705 0.506459
4009 2 0.453575 0.0120656 0.539394
3501 1 0.290696 0.0138833 0.694596
4008 1 0.462493 0.00747158 0.519164
3544 2 0.48557 0.0442586 0.641773
3008 2 0.349681 0.0170418 0.748531
2545 2 0.272865 0.220472 0.502297
641 2 0.136973 0.00716679 0.967103
1258 2 0.196873 0.00734644 0.758979
1266 1 0.142078 0.0296467 0.848535
1267 2 0.145132 0.0429261 0.830529
217 2 0.063334 0.192328 0.971555
676 2 0.0792004 0.0131699 0.882726
1268 2 0.161232 0.0177962 0.850144
672 1 0.0881237 0.0259681 0.798636
218 2 0.0366696 0.187257 0.994766
1850 2 0.230179 0.0112547 0.861785
94 2 0.114071 0.172585 0.985381
677 2 0.106606 6.79856e-05 0.863946
126 1 0.0877448 0.0742532 0.848634
127 2 0.0934977 0.0554142 0.837594
128 2 0.0784511 0.0669305 0.867866
674 2 0.0894557 0.0452372 0.786939
714 1 0.157657 0.0708701 0.796784
715 2 0.153258 0.0905255 0.806991
716 2 0.142039 0.0693014 0.780551
165 1 0.00562599 0.0820044 0.790054
166 2 0.0255084 0.0922964 0.787114
753 1 0.0676753 0.10292 0.790447
754 2 0.0744344 0.0985008 0.811534
755 2 0.0693289 0.125361 0.788558
759 1 0.102367 0.142915 0.865396
761 2 0.0895706 0.127187 0.855459
170 2 0.00504247 0.118936 0.850493
1218 1 0.0242734 0.0284429 0.824329
760 2 0.123003 0.139671 0.856822
1219 2 0.0143612 0.0464822 0.815044
1220 2 0.0455962 0.0292719 0.816945
1259 2 0.169525 0.0273462 0.770272
1260 1 0.247867 0.063295 0.818833
1261 2 0.235685 0.0690174 0.800702
1890 1 0.212358 0.0893101 0.772391
1891 2 0.196393 0.0796396 0.7851
1892 2 0.211528 0.111184 0.777934
1344 1 0.194015 0.154937 0.784638
1257 1 0.179453 0.00729972 0.773346
210 1 0.0249379 0.161361 0.83941
211 2 0.0318915 0.170636 0.820032
798 1 0.0565995 0.174068 0.783
799 2 0.0354803 0.17458 0.775026
800 2 0.0695649 0.172405 0.764588
1386 1 0.133392 0.16348 0.770184
1387 2 0.124453 0.178093 0.755471
1388 2 0.138648 0.145399 0.757721
1428 1 0.0955499 0.240343 0.769037
1429 2 0.0735273 0.2373 0.765084
1430 2 0.0973465 0.240112 0.791545
1390 2 0.0753315 0.191063 0.812404
1345 2 0.211633 0.169012 0.785812
1932 1 0.229617 0.20884 0.802539
1934 2 0.248264 0.216388 0.792281
1346 2 0.176942 0.167828 0.777411
1933 2 0.237146 0.198849 0.821337
1971 1 0.177955 0.215151 0.756779
1972 2 0.196041 0.215853 0.77028
1973 2 0.170408 0.236428 0.756313
254 2 0.00221784 0.228584 0.839296
91 2 0.02138 0.0103265 0.948225
1351 2 0.192944 0.212482 0.99603
805 2 0.0951927 0.236079 0.956086
92 2 0.00192984 0.0320646 0.92762
642 1 0.112738 0.0408981 0.966757
1302 1 0.160611 0.124041 0.836181
644 2 0.118299 0.0627738 0.966119
679 2 0.0064495 0.0307859 0.868527
643 2 0.105596 0.0362608 0.945843
90 1 0.0162732 0.032093 0.94506
132 1 0.0550054 0.106316 0.975265
134 2 0.0693164 0.104243 0.957922
717 1 0.128371 0.184351 0.90167
718 2 0.142682 0.175078 0.916471
719 2 0.11792 0.166761 0.892117
171 1 0.0374375 0.109796 0.901033
172 2 0.0209698 0.106277 0.885989
174 1 0.0627676 0.0471682 0.901343
175 2 0.0755882 0.0636296 0.909976
176 2 0.0438114 0.0477381 0.913599
173 2 0.0358908 0.131749 0.906089
213 1 0.0337153 0.175019 0.909775
762 1 0.0986748 0.0963188 0.921914
763 2 0.116401 0.0982423 0.908059
764 2 0.0830518 0.110004 0.913052
1347 1 0.16518 0.154029 0.944447
1303 2 0.174267 0.119224 0.853507
1304 2 0.16795 0.143992 0.828566
720 1 0.157351 0.0723721 0.891329
721 2 0.178205 0.0769391 0.883972
722 2 0.148813 0.0583677 0.87581
1848 1 0.219795 0.0119273 0.841746
1849 2 0.232352 0.0260022 0.829332
1305 1 0.219288 0.0831622 0.874162
1306 2 0.226628 0.077724 0.853512
1307 2 0.237778 0.090135 0.885088
1308 1 0.186474 0.052851 0.954299
1309 2 0.17854 0.0707969 0.965474
1310 2 0.180816 0.0566339 0.932769
1856 2 0.239138 0.0524483 0.986927
1895 2 0.239804 0.159907 0.85794
1896 1 0.24567 0.0782866 0.947364